    5
energy=   -113.56399954
C       9.04183731    -12.31573718     13.22945461
H       8.36824931    -13.15506418     12.96004761
H       8.61106331    -11.36256918     12.85975961
H       9.15133831    -12.26885918     14.33244261
H      10.03669832    -12.47645618     12.76556861
    5
energy=   -107.49094681
C      12.80232022    -12.70337923     15.40567257
H       2.78292336    -12.06009621      9.65898900
H       2.88700715    -11.29173157      9.61599989
H      12.93717168    -12.66061022     16.49659625
H      13.79976425    -12.86286848     14.97001539
