    2
energy=    -21.41443062
H       0.73816603    -19.46950779      9.49948551
H       8.85383902     -7.50654299     23.23004690
    2
energy=    -26.74026086
H       4.63799833    -13.72093262     16.09744564
H       4.95400674    -13.25511820     16.63208682
