    2
energy=    -26.74026244
H      10.49610869     -3.33356324    -12.63385384
H      11.10721672     -3.81103838    -12.67422945
    2
energy=    -21.41443062
H       6.08361448      0.11403722    -12.34232251
H      15.51971092     -7.25863884    -12.96576078
