    5
energy=   -113.61352447
C      13.20287325    -11.98525983     -8.62789684
H      12.63072431    -12.88655311     -8.45079566
H      12.91832044    -11.55877356     -9.58093144
H      13.00434622    -11.27116934     -7.83935551
H      14.25814078    -12.22463526     -8.64049222
    5
energy=   -107.66061291
C      13.64312820    -13.56880140    -10.37646407
H      12.97526610    -14.26274036     -9.91625117
H      13.27620053    -12.87360866    -11.09858460
H      11.44185049     -5.65103590     -1.63344970
H      14.67795972    -13.57020533    -10.11472230
