    5
energy=   -107.48954441
C      13.71699890    -13.16576379     -8.33637799
H      13.06892679    -14.00901245     -8.61755920
H       9.34473870     -3.06359237    -10.59620675
H       9.57633112     -3.45207952     -9.96493153
H      14.69447076    -13.34785528     -8.80703718
    5
energy=   -113.61352447
C      12.08028549     -9.40764223     -9.26442505
H      11.50813656    -10.30893552     -9.08732387
H      11.79573269     -8.98115597    -10.21745966
H      11.88175847     -8.69355175     -8.47588373
H      13.13555303     -9.64701766     -9.27702044
