    2
energy=    -26.74026245
H       1.78171225    -19.29778951     10.05218628
H       1.88579604    -18.52942486     10.00919717
    2
energy=    -21.41443062
H       1.03017714    -24.84575220     10.36258833
H       2.63733116    -12.98146217      9.69879511
