    2
energy=    -21.41443062
H       2.80019934    -22.07477278    -10.78119916
H      18.05223689    -11.38404860     -5.76510156
    2
energy=    -26.74026085
H      10.11929754    -16.94454286     -8.37409057
H      10.73313873    -16.51427858     -8.17221018
