    8
energy=   -193.98419150
C      11.95129734    -12.69666688      0.95868385
H      11.22726699    -13.31156530      0.43000339
H      12.83796091    -10.97976686     -9.39994942
H      11.88661178    -11.67131440      0.58271770
H      12.95644888    -13.04908118      0.69317664
C      11.73941164    -12.74218927      2.41325043
H      11.06074079    -13.44329686      2.85536451
H      12.30839481    -12.10208429      3.05862640
    8
energy=   -193.98419776
C      10.74188959    -11.70875899     -1.00732532
H       9.94139969    -12.29062816     -1.45754542
H      11.67626429    -11.95527810     -1.52876444
H      10.56395575    -10.64732816     -1.20281159
H      20.34822239    -17.26357312      4.41730437
C      10.85415656    -11.97032257      0.43562843
H      10.31402901    -12.77006491      0.90045226
H      11.52821391    -11.39001408      1.03493792
