    2
energy=    -26.74026244
H      11.48329395    -12.07648250     23.41688783
H      11.86280938    -12.16547033     22.74523693
    2
energy=    -21.41443062
H       8.74300981    -11.43394754     28.26653072
H      14.60309352    -12.80800530     17.89559403
