    5
energy=   -107.66061290
C      12.54654509    -11.90408196     -8.26954197
H      12.19749708    -12.81529722     -8.70225128
H      12.44529425    -10.98601400     -8.80459767
H      12.99665762    -11.91090455     -7.30169008
H      16.59899381    -12.95934469     20.02302178
    5
energy=   -107.49094690
C      12.52097327    -11.97034371     -8.30488149
H      14.33751886    -12.89148512      5.28034632
H      12.47109963    -10.96850560     -8.75650353
H      13.00011242    -11.85033327     -7.32195088
H      14.45528363    -12.89497490      6.04793019
