    5
energy=   -113.56399954
C       9.04183730    -12.31573719     13.22945461
H       8.36824930    -13.15506419     12.96004761
H       8.61106330    -11.36256919     12.85975961
H       9.15133830    -12.26885919     14.33244261
H      10.03669831    -12.47645619     12.76556861
    5
energy=   -107.49094681
C      10.96261993     -9.61735499     10.39101313
H       5.70364791    -16.95949556     17.62030642
H      10.55731013     -8.66848726     10.00956514
H       6.03932404    -16.57961808     18.20859237
H      11.94628456     -9.75373023      9.91779619
