    5
energy=   -113.61352308
H       6.93937612    -18.50537150     -7.80883422
H       5.77744132    -17.19702627     -8.05617077
C       6.41259788    -17.68969512     -7.33147673
H       5.80497835    -18.07630385     -6.52358727
H       7.12770380    -16.97982602     -6.93710953
    5
energy=   -107.49094690
H       6.04526482    -19.83895234    -14.20411132
H       5.53467104    -19.26402029    -14.31279825
C       6.78966012    -16.56173586     -3.13462688
H       6.18567478    -16.93934894     -2.29633155
H       7.50682665    -15.84416552     -2.70931059
