    5
energy=   -107.48954442
H       5.95914079    -18.99481177    -11.76048805
H       6.06322458    -18.22644712    -11.80347716
C       8.72979661    -12.34356137     11.97664430
H       8.04536419    -13.15840072     11.69786524
H       8.28193405    -11.41200111     11.60015622
    5
energy=   -113.61352308
H       7.94284598    -15.64277335      1.86473934
H       6.78091118    -14.33442812      1.61740280
C       7.41606774    -14.82709696      2.34209684
H       6.80844821    -15.21370569      3.14998630
H       8.13117367    -14.11722786      2.73646404
