    5
energy=   -113.56399954
C       9.04183731    -12.31573718     13.22945461
H       8.36824931    -13.15506418     12.96004761
H       8.61106331    -11.36256918     12.85975961
H       9.15133831    -12.26885918     14.33244261
H      10.03669832    -12.47645618     12.76556861
    5
energy=   -107.49094681
C      10.96261994     -9.61735498     10.39101313
H       5.70364792    -16.95949555     17.62030642
H      10.55731014     -8.66848725     10.00956514
H       6.03932405    -16.57961807     18.20859237
H      11.94628457     -9.75373022      9.91779619
