    2
energy=    -26.74026244
H       8.23189210    -20.04841143    -11.69867644
H       8.94708380    -19.75752164    -11.78204116
    2
energy=    -21.41443062
H       3.06786363    -22.14877585    -11.09674305
H      14.11111228    -17.65715722    -12.38397456
