    5
energy=   -113.56399954
C       9.04183731    -12.31573718     13.22945461
H       8.36824931    -13.15506418     12.96004761
H       8.61106331    -11.36256918     12.85975961
H       9.15133831    -12.26885918     14.33244261
H      10.03669832    -12.47645618     12.76556861
    5
energy=   -107.66061292
C       9.97363014    -14.37750302     14.02912957
H       9.13970606    -14.90987174     13.62845582
H       5.31458568     -4.06849622     10.03068614
H       9.93886674    -14.00547882     15.02901695
H      10.84239798    -14.21733630     13.42998489
