    4
energy=    -96.95339760
C       9.57590771    -11.90634881     13.47699038
H       8.81437135    -12.57145139     13.13480503
H       9.50499308    -11.46788931     14.44762188
H      10.40850196    -11.67974118     12.84862987
    4
energy=    -91.45790217
C       9.74618357    -12.95867616     11.14750518
H       9.02912421    -13.65426779     10.68644970
H       8.97771782     -8.20937162     21.66080101
H      10.55074849    -12.80311528     10.41329125
