    8
energy=   -194.32401013
C      10.55985872    -12.50907649      1.06185624
H      11.35177941    -12.84539282      0.36721678
H      12.18959183    -12.06554178      2.48301655
C      11.11891216    -12.26920913      2.38020977
H      10.92529810    -13.27587555      2.78693352
H      10.52317471    -11.57827421      2.97599536
H      11.50351920    -12.07470451     23.49763505
H      11.88303463    -12.16369234     22.82598415
    8
energy=   -199.63288727
C      11.28337414    -12.49443365      8.04334397
H      11.70130515    -13.48218520      8.22466632
H      12.22796924    -12.23365369      6.11900673
C      11.23037972    -12.20095922      6.55140205
H      10.61168113    -12.93410349      6.03864903
H      10.81154438    -11.21361377      6.36990071
H      10.28589367    -12.46085684      8.47592876
H      11.90302672    -11.76196597      8.55596698
