    2
energy=    -26.74026245
H       1.78171226    -19.29778950     10.05218628
H       1.88579605    -18.52942485     10.00919717
    2
energy=    -21.41443062
H       1.03017715    -24.84575219     10.36258833
H       2.63733117    -12.98146216      9.69879511
