    5
energy=   -113.56399954
C       9.04183730    -12.31573719     13.22945461
H       8.36824930    -13.15506419     12.96004761
H       8.61106330    -11.36256919     12.85975961
H       9.15133830    -12.26885919     14.33244261
H      10.03669831    -12.47645619     12.76556861
    5
energy=   -107.66061286
C      10.49885281    -10.50021731     13.81219987
H       3.21365110    -19.57797172     10.89842414
H       9.83014131     -9.81295256     13.34328855
H      10.38150496    -10.73784331     14.84619653
H      11.28503649    -10.94970115     13.24716425
