    7
energy=   -177.70267952
C      13.71701018    -13.16578992     -8.33637244
H      13.06893807    -14.00903858     -8.61755364
H      14.69448204    -13.34788142     -8.80703163
C       9.49943111    -11.74555061     13.41247298
H       8.83071961    -11.05828586     12.94356166
H       9.38208326    -11.98317661     14.44646964
H      10.28561479    -12.19503445     12.84743736
    7
energy=   -183.27775265
C      11.49224513    -12.69509134      3.41565369
H      10.65290232    -12.60152555      2.72901423
H      12.31482441    -12.08709560      3.01321484
C      11.12441306    -12.26570825      4.77315956
H      10.30709254    -11.59168673      4.93570868
H      11.84768598    -13.72734856      3.41269584
H      11.73911308    -12.53630392      5.60953698
