    5
energy=   -113.56399954
C      13.21926585    -12.01275946     -8.58321970
H      12.54567785    -12.85208646     -8.85262670
H      12.78849185    -11.05959146     -8.95291470
H      13.32876685    -11.96588146     -7.48023170
H      14.21412685    -12.17347846     -9.04710570
    5
energy=   -107.49094681
C      16.97974876    -12.40040151     -6.40700178
H       6.96035190    -11.75711849    -12.15368535
H       7.06443570    -10.98875385    -12.19667446
H      17.11460022    -12.35763250     -5.31607810
H      17.97719279    -12.55989076     -6.84265896
