    5
energy=   -113.61352447
C      13.21189515    -12.06714173     -8.58017934
H      13.19330092    -13.14111677     -8.44839385
H      12.32813381    -11.75462743     -9.12095329
H      13.23131560    -11.58513486     -7.61149923
H      14.09490226    -11.78762593     -9.13983842
    5
energy=   -107.66061289
C      13.16887477    -13.13600522    -10.72831358
H      13.15613988    -14.09153372    -10.25271933
H      12.25104047    -12.64105090    -10.95632066
H      13.38405296     -7.79152353      0.01259572
H      14.09943978    -12.67553341    -10.97610646
