    5
energy=   -113.61352450
C       8.97216055    -12.31553775     13.34825581
H       8.66229572    -13.19827970     12.80436951
H       8.89658667    -11.44967132     12.70356536
H       8.33254654    -12.18008999     14.21062030
H       9.99719304    -12.43411090     13.67440531
    5
energy=   -107.49094682
C       6.47564508     -8.82018166     14.10824719
H      12.79947062    -18.25271430     11.90268827
H       6.38147240     -7.92916926     13.47000159
H       5.81810910     -8.65872207     14.97525716
H      13.38608553    -17.91690264     12.28502216
