    5
energy=   -107.48954444
C      13.89310153    -10.90573236     -8.14916063
H       7.93450141    -20.53821343    -11.89099891
H      13.46521118     -9.95157002     -8.49064658
H      13.99159253    -10.83455410     -7.05583462
H       8.64969312    -20.24732364    -11.97436363
    5
energy=   -113.61352447
C      11.58681112    -14.49549544     -9.51220783
H      10.56276114    -14.78388709     -9.31399670
H      11.60088325    -13.53705976    -10.01445468
H      12.12787071    -14.42106096     -8.57799006
H      12.05577373    -15.23989049    -10.14235526
