    5
energy=   -107.48954444
C      13.05288802    -13.22828538     -8.12816455
H      12.01557696    -13.54336593     -7.94151286
H      14.02532011     -2.77165683    -12.13175472
H      14.25691241     -3.16014401    -11.50047947
H      13.50672830    -13.99880105     -8.76883875
    5
energy=   -113.61352447
C      13.37148770     -9.34043170     -9.69415616
H      12.54776829     -9.70383462     -9.09376168
H      12.98878434     -8.92039532    -10.61515736
H      13.90874786     -8.57779706     -9.14563487
H      14.04063784    -10.15979464     -9.92204062
