118
Lattice="17.5434 1.33894e-08 -9.00148e-09 8.77168 15.193 1.66403e-08 -1.28502e-08 3.48491e-08 25.38" Properties=species:S:1:pos:R:3:forces:R:3:charge:R:1 energy=-12300.259763804033 free_energy=-12300.259763804033 dipole="-0.48117655400602005 2.060266707549945 1.315144785614903" stress="0.0003132286985773491 -5.4334324334867786e-05 -2.890514084158853e-06 -5.4334324334867786e-05 0.00039911172905062283 -6.029600385688057e-06 -2.890514084158853e-06 -6.029600385688057e-06 -0.009222684894911381" pbc="T T T"
Au       1.46195000       0.84406000      10.26988000       0.01291267      -0.00890206      -0.36503134       0.01786230
Au       4.38584000       0.84406000      10.26988000      -0.01195468      -0.00350471      -0.37133025       0.01830036
Au       7.30974000       0.84406000      10.26988000      -0.00980445      -0.00273857      -0.35909188       0.01800344
Au       2.92389000       3.37622000      10.26988000       0.00735777      -0.00042394      -0.36409939       0.01805982
Au       5.84779000       3.37622000      10.26988000      -0.01123992      -0.01103306      -0.35840970       0.01842519
Au       8.77168000       3.37622000      10.26988000       0.00332849       0.00156807      -0.38122661       0.01760075
Au       4.38584000       5.90839000      10.26988000      -0.01341020      -0.00496476      -0.36213596       0.01855723
Au       7.30974000       5.90839000      10.26988000       0.00245976       0.00426039      -0.39963092       0.01766807
Au      10.23363000       5.90839000      10.26988000       0.00503503      -0.00360369      -0.33362306       0.01805288
Au       0.00000000       1.68811000      12.68998000       0.01977652       0.00126482      -0.00554213      -0.03650780
Au       2.92389000       1.68811000      12.68998000       0.00379098       0.00713056      -0.00551231      -0.03678721
Au       5.84779000       1.68811000      12.68998000       0.00483426       0.00089113       0.00471611      -0.03713922
Au       1.46195000       4.22028000      12.68998000      -0.00790936       0.01135963      -0.00219629      -0.03783476
Au       4.38584000       4.22028000      12.68998000       0.00238127       0.00356461      -0.01520759      -0.03803684
Au       7.30974000       4.22028000      12.68998000       0.00952314      -0.00053230       0.01212089      -0.03659780
Au       2.92389000       6.75245000      12.68998000      -0.00338391      -0.00314334       0.00618286      -0.03604273
Au       5.84779000       6.75245000      12.68998000       0.01080683       0.00591480       0.00547188      -0.03628835
Au       8.77168000       6.75245000      12.68998000      -0.02315027      -0.01251621      -0.03290074      -0.03969575
Au       0.00000000       0.00000000      15.11009000      -0.04490719       0.00078474       0.30432107       0.00287155
Au       2.92389000       0.00000000      15.11009000      -0.00529549      -0.01530551       0.66205193       0.00695468
Au       5.84779000       0.00000000      15.11009000       0.07742839       0.00386885       0.29312537       0.00831000
Au       1.46195000       2.53217000      15.11009000      -0.06131269       0.08461772       0.29271702       0.02437425
Au       4.38584000       2.53217000      15.11009000       0.06218672       0.07979941       0.28269913       0.02190435
Au       7.30974000       2.53217000      15.11009000      -0.00680688       0.00590651       0.34913192       0.01820629
Au       2.92389000       5.06433000      15.11009000       0.00895627      -0.02952434       0.36225132       0.01879920
Au       5.84779000       5.06433000      15.11009000      -0.01324554      -0.00124967       0.35654313       0.01935743
Au       8.77168000       5.06433000      15.11009000      -0.02298471      -0.01874312       0.34596818       0.01832444
Au       5.84779000       8.44056000      10.26988000       0.00950396      -0.00572389      -0.37299475       0.01847479
Au       8.77168000       8.44056000      10.26988000      -0.00074089       0.00285843      -0.32987813       0.01886675
Au      11.69558000       8.44056000      10.26988000      -0.00076710      -0.00594371      -0.38110479       0.01935595
Au       7.30974000      10.97273000      10.26988000       0.01172691      -0.00109651      -0.37859667       0.01786627
Au      10.23363000      10.97273000      10.26988000      -0.00518845       0.02568266      -0.38483041       0.01916638
Au      13.15753000      10.97273000      10.26988000       0.00308103       0.02078349      -0.36259018       0.01920668
Au       8.77168000      13.50489000      10.26988000       0.00816809       0.00681497      -0.32887974       0.01655813
Au      11.69558000      13.50489000      10.26988000       0.00364454      -0.00778710      -0.34773366       0.01741179
Au      14.61947000      13.50489000      10.26988000      -0.00882057      -0.00334611      -0.35538739       0.01687525
Au       4.38584000       9.28461000      12.68998000      -0.00327087       0.00880036       0.01120075      -0.03698564
Au       7.30974000       9.28461000      12.68998000      -0.01239011      -0.00289654      -0.00353952      -0.03628635
Au      10.23363000       9.28461000      12.68998000       0.05725460       0.00861335       0.05251734      -0.04009706
Au       5.84779000      11.81678000      12.68998000       0.01296612      -0.02712481       0.00131955      -0.03582971
Au       8.77168000      11.81678000      12.68998000      -0.02118565       0.00969708      -0.02120337      -0.03509911
Au      11.69558000      11.81678000      12.68998000       0.01012215      -0.08843644       0.09577244      -0.03840967
Au       7.30974000      14.34895000      12.68998000      -0.01744119       0.00645144       0.03230132      -0.04096638
Au      10.23363000      14.34895000      12.68998000      -0.00724834      -0.00387765      -0.02486779      -0.03731054
Au      13.15753000      14.34895000      12.68998000       0.01726595      -0.00745613      -0.01371889      -0.03740702
Au       4.38584000       7.59650000      15.11009000       0.00482479      -0.01091647       0.34309627       0.01927616
Au       7.30974000       7.59650000      15.11009000      -0.02729885      -0.01109165       0.33588051       0.01754946
Au      10.23363000       7.59650000      15.11009000      -0.26072338      -0.15252986       0.20705214       0.02653494
Au       5.84779000      10.12867000      15.11009000       0.00531989       0.00065653       0.35269633       0.01816792
Au       8.77168000      10.12867000      15.11009000      -0.03958717       0.02148625       0.35621079       0.01218328
Au      11.69558000      10.12867000      15.11009000      -0.15268679       0.25052458       0.55458325       0.08081157
Au       7.30974000      12.66084000      15.11009000       0.00974694      -0.02335344       0.36310404       0.00953123
Au      10.23363000      12.66084000      15.11009000      -0.05685248      -0.03733207       0.29426591      -0.00250319
Au      13.15753000      12.66084000      15.11009000       0.07588190      -0.00891430       0.28580957      -0.00293442
Au      10.23363000       0.84406000      10.26988000      -0.01206507       0.00119289      -0.35155115       0.01897686
Au      13.15753000       0.84406000      10.26988000      -0.00173107       0.00768055      -0.38014008       0.01976846
Au      16.08142000       0.84406000      10.26988000       0.02565739       0.00008552      -0.35705949       0.01869301
Au      11.69558000       3.37622000      10.26988000      -0.01030754       0.02280474      -0.35603771       0.01857978
Au      14.61947000       3.37622000      10.26988000       0.01467419       0.01613965      -0.35576371       0.01892049
Au      17.54337000       3.37622000      10.26988000       0.00006954       0.00853213      -0.37910574       0.01708766
Au      13.15753000       5.90839000      10.26988000       0.00428240      -0.01623114      -0.36207771       0.01789592
Au      16.08142000       5.90839000      10.26988000      -0.00129420       0.00674007      -0.35155860       0.01709436
Au      19.00532000       5.90839000      10.26988000       0.00075250      -0.01422045      -0.40901165       0.01737323
Au       8.77168000       1.68811000      12.68998000      -0.03439808      -0.00642952      -0.00500132      -0.03609147
Au      11.69558000       1.68811000      12.68998000       0.02817769      -0.01893857       0.07326211      -0.04694918
Au      14.61947000       1.68811000      12.68998000      -0.02373091      -0.01989770       0.07175391      -0.04678120
Au      10.23363000       4.22028000      12.68998000      -0.03212386       0.01425809      -0.02177929      -0.03610144
Au      13.15753000       4.22028000      12.68998000      -0.00005461      -0.05340458       0.04137383      -0.03835220
Au      16.08142000       4.22028000      12.68998000       0.03302900       0.01599540      -0.01533935      -0.03591208
Au      11.69558000       6.75245000      12.68998000       0.03095607       0.05596362       0.03923451      -0.04145187
Au      14.61947000       6.75245000      12.68998000      -0.07136090       0.07279722       0.09210086      -0.03894950
Au      17.54337000       6.75245000      12.68998000       0.00744013      -0.00332957      -0.00364138      -0.03715682
Au       8.77168000       0.00000000      15.11009000      -0.02443917      -0.00323501       0.35802321       0.01115023
Au      11.69558000       0.00000000      15.11009000      -0.44907401      -0.26573158       0.37202226       0.12638892
Au      14.61947000       0.00000000      15.11009000       0.44564078      -0.26202207       0.36885482       0.12591975
Au      10.23363000       2.53217000      15.11009000      -0.07742224       0.05614048       0.33634703       0.03411923
Au      13.15753000       2.53217000      15.11009000      -0.00432760       0.51652274       0.36388597       0.12750919
Au      16.08142000       2.53217000      15.11009000       0.08930835       0.05182390       0.33119263       0.03460264
Au      11.69558000       5.06433000      15.11009000      -0.02653619      -0.02132479       0.37152148       0.00706294
Au      14.61947000       5.06433000      15.11009000       0.03477534      -0.02664347       0.35911694       0.00446696
Au      17.54337000       5.06433000      15.11009000       0.01423363      -0.00831920       0.35181355       0.02145689
Au      14.61947000       8.44056000      10.26988000       0.00794492      -0.00498096      -0.37129055       0.01862670
Au      17.54337000       8.44056000      10.26988000      -0.01037720      -0.00424728      -0.35307078       0.01797775
Au      20.46726000       8.44056000      10.26988000      -0.00119958      -0.00439253      -0.36175223       0.01908653
Au      16.08142000      10.97273000      10.26988000      -0.00793667       0.00809864      -0.37114127       0.01811104
Au      19.00532000      10.97273000      10.26988000      -0.00346515      -0.00138787      -0.37251542       0.01822449
Au      21.92921000      10.97273000      10.26988000      -0.00472266       0.00961440      -0.36597476       0.01793450
Au      17.54337000      13.50489000      10.26988000      -0.00895936      -0.00360095      -0.36795027       0.01721636
Au      20.46726000      13.50489000      10.26988000      -0.00726770      -0.01609830      -0.34374043       0.01915092
Au      23.39116000      13.50489000      10.26988000       0.01713518      -0.01788887      -0.37558949       0.01873824
Au      13.15753000       9.28461000      12.68998000      -0.00503833      -0.00499743       0.00255933      -0.04528547
Au      16.08142000       9.28461000      12.68998000       0.02178679      -0.01685569       0.00249267      -0.03563710
Au      19.00532000       9.28461000      12.68998000      -0.01545845       0.00447702       0.00753853      -0.03672630
Au      14.61947000      11.81678000      12.68998000       0.00674296       0.03632201      -0.01751710      -0.03671073
Au      17.54337000      11.81678000      12.68998000      -0.01415685      -0.00994881      -0.00394219      -0.03648274
Au      20.46726000      11.81678000      12.68998000      -0.00318210      -0.03183721      -0.00785972      -0.03636769
Au      16.08142000      14.34895000      12.68998000      -0.01251494      -0.01538065      -0.01800064      -0.03704130
Au      19.00532000      14.34895000      12.68998000       0.01416583       0.02025030       0.03734084      -0.04011909
Au      21.92921000      14.34895000      12.68998000       0.00302567       0.03450968       0.06285228      -0.04647452
Au      13.15753000       7.59650000      15.11009000       0.13501396      -0.23022906       0.55160990       0.08805183
Au      16.08142000       7.59650000      15.11009000       0.06456476      -0.00064817       0.33943543       0.01191375
Au      19.00532000       7.59650000      15.11009000      -0.00259568      -0.00258380       0.34145011       0.01902004
Au      14.61947000      10.12867000      15.11009000       0.27262955       0.16322726       0.14562154       0.03388180
Au      17.54337000      10.12867000      15.11009000      -0.00071559       0.01091897       0.35055538       0.01586129
Au      20.46726000      10.12867000      15.11009000       0.00276936      -0.00098325       0.34311857       0.01895558
Au      16.08142000      12.66084000      15.11009000      -0.01766776      -0.00839403       0.36120116       0.01383182
Au      19.00532000      12.66084000      15.11009000      -0.00269447      -0.01272768       0.36702860       0.01204915
Au      21.92921000      12.66084000      15.11009000      -0.00427671      -0.09324602       0.33442306       0.03455408
C        2.90906454       0.08062562      17.53505905       0.00205168       0.00426326      -0.00494193       0.33184203
O        2.85503114       1.10496758      17.99539183       0.00256385      -0.00001578       0.00594762      -0.26173274
O       13.15908485       0.84505863      16.88110073      -0.00071543      -0.00034256      -0.00149079      -0.69194014
H       13.15817945       0.84606326      17.83452594       0.00099361       0.00124905       0.00101083       0.35419110
N       12.36013529       8.81817325      17.02655657      -0.00354146      -0.00289096      -0.00293511      -0.46635884
H       11.57813536       8.35836088      17.47307713       0.00355134       0.00282639      -0.00125162       0.21355900
C       13.22453330       9.30899730      18.07669971       0.00880246      -0.00013734      -0.00128791       0.08976845
H       14.09043413       9.82043047      17.65188341      -0.00441508      -0.00265268      -0.00176274       0.02109646
H       12.67773240      10.01177256      18.71200981      -0.00369096       0.00619722       0.00524341       0.03711065
H       13.57554781       8.47596755      18.69275122       0.00004085      -0.00172412       0.00030214       0.04009315
