    5
energy=   -113.56399954
C      13.21926585    -12.01275946     -8.58321970
H      12.54567785    -12.85208646     -8.85262670
H      12.78849185    -11.05959146     -8.95291470
H      13.32876685    -11.96588146     -7.48023170
H      14.21412685    -12.17347846     -9.04710570
    5
energy=   -107.49094680
C      15.14004848     -9.31437726    -11.42166122
H       9.88107646    -16.65651783     -4.19236793
H      14.73473868     -8.36550953    -11.80310921
H      10.21675260    -16.27664035     -3.60408198
H      16.12371311     -9.45075250    -11.89487816
