    5
energy=   -113.61352447
C      13.21189508    -12.06714160     -8.58017938
H      13.19284374    -13.14114002     -8.44864920
H      12.32829489    -11.75412940     -9.12092840
H      13.23146407    -11.58537301     -7.61138372
H      14.09505076    -11.78786413     -9.13972306
    5
energy=   -107.49094686
C      16.36302693     -9.41056196     -7.15160764
H       8.20078063    -16.75667164    -10.79038535
H       7.82087845    -16.14718802    -11.08579992
H      16.40613518     -8.90948430     -6.17324573
H      17.26872740     -9.11174207     -7.69982521
