    5
energy=   -113.56399954
C       9.04183730    -12.31573719     13.22945461
H       8.36824930    -13.15506419     12.96004761
H       8.61106330    -11.36256919     12.85975961
H       9.15133830    -12.26885919     14.33244261
H      10.03669831    -12.47645619     12.76556861
    5
energy=   -107.66061292
C       9.97363013    -14.37750303     14.02912957
H       9.13970605    -14.90987175     13.62845582
H       5.31458567     -4.06849623     10.03068614
H       9.93886673    -14.00547883     15.02901695
H      10.84239797    -14.21733631     13.42998489
