    5
energy=   -107.48954452
C      13.39608154    -10.80044986     -8.64393022
H      11.85058044    -21.91493046     -8.04464578
H      11.47067827    -21.30544684     -8.34006036
H      13.43918979    -10.29937220     -7.66556831
H      14.30178201    -10.50162996     -9.19214779
    5
energy=   -113.61352447
C      12.89165834    -14.96438556     -8.37727014
H      13.51859542    -15.72042119     -7.92285203
H      12.01706577    -15.43289429     -8.80938475
H      12.58370314    -14.25081873     -7.62425299
H      13.44728961    -14.45330964     -9.15259209
