    2
energy=    -21.41443062
H       0.73816604    -19.46950778      9.49948551
H       8.85383903     -7.50654298     23.23004690
    2
energy=    -26.74026086
H       4.63799834    -13.72093261     16.09744564
H       4.95400675    -13.25511819     16.63208682
