    6
energy=   -170.64975432
C      11.86728756    -12.71439828      2.99695822
H      11.11188611    -12.67666278      2.22918549
H      12.87105029    -12.91912889      2.66215485
C      11.58111719    -12.52182321      4.26737108
H      10.57744418    -12.31686584      4.60232237
H      12.33651650    -12.55889876      5.03517574
    6
energy=   -164.79108893
C      10.49465301    -12.36213476      4.09046119
H       9.94934790    -12.37512963      3.17635181
H      19.22006562    -14.58413607     -2.68812210
C      10.28727746    -12.18365974      5.34892181
H       9.30829401    -11.97068635      5.78860734
H      11.08566394    -12.23203122      6.07694759
