    8
energy=   -194.31328155
C      13.21926584    -12.01275945     -8.58321971
H      12.54567784    -12.85208645     -8.85262671
H      12.78849184    -11.05959145     -8.95291471
H      13.32876684    -11.96588145     -7.48023171
H      14.21412684    -12.17347845     -9.04710571
C       9.99887401    -13.08127820     13.17770664
H       9.75595658    -14.08539224     12.79971819
H      10.51890701    -13.22197817     14.13681995
    8
energy=   -193.98419149
C      11.99824901    -12.79903933      0.50988070
H      11.27421866    -13.41393775     -0.01879975
H      12.91123274    -10.71964038    -10.65205494
H      11.93356345    -11.77368685      0.13391455
H      13.00340055    -13.15145363      0.24437349
C      11.78636331    -12.84456172      1.96444728
H      11.10769246    -13.54566931      2.40656136
H      12.35534648    -12.20445674      2.60982325
