    5
energy=   -107.48954445
C      14.15702742    -11.12624018     -8.17079410
H       6.01682794    -18.94040600    -11.73510025
H       6.12091173    -18.17204135    -11.77808936
H      14.29187887    -11.08347117     -7.07987042
H      15.15447145    -11.28572943     -8.60645128
    5
energy=   -113.61352447
C      11.14820885    -14.12158960     -9.47406769
H      11.12915750    -15.19558803     -9.34253751
H      10.26460865    -13.80857741    -10.01481671
H      11.16777783    -13.63982102     -8.50527202
H      12.03136452    -13.84231214    -10.03361137
