    8
energy=   -194.31328165
C      13.55877834    -13.12866452     -8.05636570
H      12.88812549    -13.96661847     -8.29758446
H      13.65107661    -13.10320318     -6.96048189
C       9.04183730    -12.31573719     13.22945461
H       8.36824930    -13.15506419     12.96004761
H       8.61106330    -11.36256919     12.85975961
H       9.15133830    -12.26885919     14.33244261
H      10.03669831    -12.47645619     12.76556861
    8
energy=   -199.63288715
C      10.76172750    -12.88766350      4.61816346
H       9.91574480    -12.53793201      4.03067076
H      11.66279425    -12.41290849      4.23593487
C      10.56501161    -12.55664884      6.09004458
H      10.85534983    -13.96219866      4.47646852
H      10.47128439    -11.48215602      6.23174505
H       9.66412486    -13.03151167      6.47226094
H      11.41111876    -12.90616623      6.67757633
