    5
energy=   -107.48954448
C       9.16762407    -11.20604001     13.95924597
H       7.37830774    -20.91138465      8.58486845
H       9.07345139    -10.31502761     13.32100037
H       8.51008809    -11.04458042     14.82625594
H       7.96492264    -20.57557299      8.96720235
    5
energy=   -113.61352447
C       8.41887704    -14.81053900     11.93170551
H       7.52758047    -15.16135317     11.42806314
H       8.75878599    -13.89425434     11.46701940
H       8.19477121    -14.62473920     12.97396449
H       9.19437922    -15.56172009     11.85782081
