    5
energy=   -107.48954446
H      10.32564045     -2.77084829    -12.89994984
H      10.93674847     -3.24832344    -12.94032545
C      10.25043585    -12.15132675     13.08490962
H      10.81537861    -12.09383999     14.02706882
H      10.74862159    -12.91019058     12.46356778
    5
energy=   -113.61352134
H       9.77400795     -8.15785933      2.26207182
H      11.44868142     -8.68231834      2.05857857
C      10.61536616     -8.63497259      2.74723602
H      10.90045383     -8.06213499      3.62011086
H      10.33831521     -9.63724446      3.04727309
