    5
energy=   -107.48954442
C       9.67305060    -11.27890908     13.63594981
H       4.05367019    -20.35269587     10.11348480
H       9.24516025    -10.32474674     13.29446386
H       9.77154161    -11.20773082     14.72927581
H       4.76886189    -20.06180607     10.03012009
    5
energy=   -113.61352447
C       7.50244803    -14.64519431     12.36065186
H       6.47889708    -14.93682797     12.55668462
H       7.51459758    -13.68617546     11.85946914
H       8.04158585    -14.57017705     13.29593349
H       7.97475617    -15.38751403     11.73055494
