    5
energy=   -107.48954446
C       9.92770834    -11.47815680     13.61904347
H       2.20049140    -18.90283151     10.23648869
H       2.30457519    -18.13446687     10.19349958
H      10.06255979    -11.43538780     14.70996715
H      10.92515237    -11.63764605     13.18338629
    5
energy=   -113.61352447
C       7.08408282    -14.31771006     12.38847063
H       7.06203756    -15.39185471     12.51832821
H       6.20154237    -14.00143693     11.84788818
H       7.10461884    -13.83749826     13.35801882
H       7.96820556    -14.03998934     11.82967992
