    5
energy=   -113.56399954
C       9.04183731    -12.31573718     13.22945461
H       8.36824931    -13.15506418     12.96004761
H       8.61106331    -11.36256918     12.85975961
H       9.15133831    -12.26885918     14.33244261
H      10.03669832    -12.47645618     12.76556861
    5
energy=   -107.49094684
C       7.12105462    -15.01411946     16.06789614
H       6.45040177    -15.85207341     15.82667737
H      11.90663466     -7.62318002      8.56464767
H       7.21335289    -14.98865812     17.16377994
H      12.51774269     -8.10065516      8.52427206
