    2
energy=    -26.74026244
H      11.48329396    -12.07648249     23.41688783
H      11.86280939    -12.16547032     22.74523693
    2
energy=    -21.41443062
H       8.74300982    -11.43394753     28.26653072
H      14.60309353    -12.80800529     17.89559403
