    5
energy=   -113.56399954
C       9.04183731    -12.31573718     13.22945461
H       8.36824931    -13.15506418     12.96004761
H       8.61106331    -11.36256918     12.85975961
H       9.15133831    -12.26885918     14.33244261
H      10.03669832    -12.47645618     12.76556861
    5
energy=   -107.66061286
C      10.49885282    -10.50021730     13.81219987
H       3.21365111    -19.57797171     10.89842414
H       9.83014132     -9.81295255     13.34328855
H      10.38150497    -10.73784330     14.84619653
H      11.28503650    -10.94970114     13.24716425
