    5
energy=   -107.48954442
C       8.73249587    -12.34331463     11.98758970
H       8.04806346    -13.15815398     11.70881064
H       8.28463331    -11.41175437     11.61110163
H      11.35708594    -12.08757739     22.91301546
H      11.73660137    -12.17656522     22.24136456
    5
energy=   -113.61352447
C       9.63178211    -12.23547292     16.09239556
H       9.32521225    -13.11752414     15.54554140
H       9.56205455    -11.36911287     15.44771948
H       8.98566489    -12.09997268     16.94989652
H      10.65416624    -12.35528293     16.42632943
