    5
energy=   -107.48954445
C      14.10529743    -11.17502767     -8.19356019
H      14.24014888    -11.13225866     -7.10263650
H      15.10274145    -11.33451692     -8.62921737
H       1.78171225    -19.29778951     10.05218628
H       1.88579604    -18.52942486     10.00919717
    5
energy=   -113.61352314
C       9.42326348    -14.29377392     -0.77272949
H      10.17012403    -13.51309264     -0.71221357
H       9.36436912    -14.65933582     -1.78970423
H       9.69652315    -15.10661916     -0.11285151
H       8.46136557    -13.89622229     -0.47635974
