    5
energy=   -113.56399954
C      13.21926585    -12.01275946     -8.58321970
H      12.54567785    -12.85208646     -8.85262670
H      12.78849185    -11.05959146     -8.95291470
H      13.32876685    -11.96588146     -7.48023170
H      14.21412685    -12.17347846     -9.04710570
    5
energy=   -107.66061289
C      11.06731498    -11.66511356     -7.57980321
H      10.71826697    -12.57632883     -8.01251251
H      10.96606413    -10.74704560     -8.11485891
H      11.51742750    -11.67193616     -6.61195132
H      21.82725576    -13.40337336    -12.59697238
