    8
energy=   -193.98525954
C      11.48126554    -11.22988852      1.81828990
H      10.87927019    -10.64237639      1.15369248
H       8.86735665    -20.14204267    -15.93748436
H      12.27304396    -11.82132187      1.40269450
C      11.12619274    -11.35166551      3.24032066
H      10.42917870    -12.18526247      3.40840063
H      10.63294485    -10.45040692      3.60305891
H      12.00643781    -11.55304145      3.85099448
    8
energy=   -199.63287145
C      11.00526672    -12.56029556     -0.42943397
H      10.23342736    -12.01234149     -0.96542725
H      10.87365666    -13.62112847     -0.63063431
H      11.97400837    -12.25597036     -0.81955496
C      10.91867448    -12.28378102      1.06445500
H       9.95269521    -12.59494320      1.45599430
H      11.04275924    -11.22185038      1.26481501
H      11.69518590    -12.82569508      1.59975422
