    2
energy=    -26.74026244
H       8.23189211    -20.04841144    -11.69867643
H       8.94708381    -19.75752165    -11.78204115
    2
energy=    -21.41443062
H       3.06786364    -22.14877586    -11.09674304
H      14.11111229    -17.65715723    -12.38397455
