    2
energy=    -26.74026244
H      10.49610868     -3.33356323    -12.63385385
H      11.10721671     -3.81103837    -12.67422946
    2
energy=    -21.41443062
H       6.08361447      0.11403723    -12.34232252
H      15.51971091     -7.25863883    -12.96576079
