   10
energy=   -227.12799909
C      13.21926584    -12.01275945     -8.58321971
H      12.54567784    -12.85208645     -8.85262671
H      12.78849184    -11.05959145     -8.95291471
H      13.32876684    -11.96588145     -7.48023171
H      14.21412684    -12.17347845     -9.04710571
C       9.04183731    -12.31573718     13.22945461
H       8.36824931    -13.15506418     12.96004761
H       8.61106331    -11.36256918     12.85975961
H       9.15133831    -12.26885918     14.33244261
H      10.03669832    -12.47645618     12.76556861
