    5
energy=   -113.56399954
C       9.04183730    -12.31573719     13.22945461
H       8.36824930    -13.15506419     12.96004761
H       8.61106330    -11.36256919     12.85975961
H       9.15133830    -12.26885919     14.33244261
H      10.03669831    -12.47645619     12.76556861
    5
energy=   -107.49094681
C      12.80232021    -12.70337924     15.40567257
H       2.78292335    -12.06009622      9.65898900
H       2.88700714    -11.29173158      9.61599989
H      12.93717167    -12.66061023     16.49659625
H      13.79976424    -12.86286849     14.97001539
