    5
energy=   -107.48954449
C       9.38134979    -13.43164225     13.75630862
H       8.71069694    -14.26959620     13.51508985
H       6.31868014     -3.63654097      9.17882048
H       9.47364806    -13.40618091     14.85219242
H       6.92978817     -4.11401611      9.13844487
    5
energy=   -113.61352447
C       8.16282899     -9.77157779     12.08816218
H       7.91274208    -10.74838753     11.69529053
H       7.25631303     -9.19925554     12.23585139
H       8.67657192     -9.88397808     13.03393337
H       8.80570721     -9.25477790     11.38761893
