    5
energy=   -113.61352447
C       8.99858711    -12.28194003     13.23230919
H       8.74850020    -13.25874976     12.83943755
H       8.09207116    -11.70961777     13.37999841
H       9.51233005    -12.39434031     14.17808038
H       9.64146533    -11.76514014     12.53176595
    5
energy=   -107.49094676
C       9.91893501    -16.08403523     15.16230857
H       9.67601758    -17.08814927     14.78432012
H       7.13909738     -5.99423542     10.23313671
H      10.43896802    -16.22473519     16.12142188
H       7.81993589     -6.01863320      9.86040437
