    5
energy=   -107.48954444
C       9.83305677    -11.31379000     13.35616403
H       2.88987485    -20.09816146     12.14955539
H       9.42774697    -10.36492227     12.97471604
H       3.22555099    -19.71828399     12.73784134
H      10.81672140    -11.45016524     12.88294710
    5
energy=   -113.61352447
C       7.23857781    -14.58908036     12.82024444
H       6.83706426    -15.02645871     11.91546665
H       6.92866056    -13.55454862     12.88912297
H       6.86941330    -15.13419379     13.67914161
H       8.31923507    -14.64104147     12.79724852
