    5
energy=   -113.61352447
C      13.20287326    -11.98525984     -8.62789678
H      12.63072439    -12.88655205     -8.45078967
H      12.91832369    -11.55878307     -9.58093659
H      13.00434232    -11.27116186     -7.83936335
H      14.25814116    -12.22463415     -8.64048588
    5
energy=   -107.49094684
C      10.51248099    -12.63851664     -5.25703118
H       9.92085996    -13.54364239     -5.05489025
H      17.34912769    -10.76071891    -14.39830928
H      10.29403495    -11.93019110     -4.44420568
H      17.93790132    -11.05332206    -13.98503608
