14
energy=-10.0
C     -1.9436231500    0.0789638149    0.4136740755
C     -0.4607265556   -0.2556714467    0.4006128069
H     -2.2031727850    0.6762224850    1.2935580259
H     -2.2262110107    0.6434341526   -0.4806093752
H     -2.5392750754   -0.8388669281    0.4383778012
C      0.3972874000    1.0072485740    0.3661253753
H     -0.2175252833   -0.8472214041    1.2909207469
H     -0.2404345661   -0.8798204970   -0.4732563400
H      0.1770026158    1.6313957279    1.2400035257
C      1.8802039280    0.6726138230    0.3530673849
H      0.1540962287    1.5987923724   -0.5241762883
H      2.1627779651    0.1081400219    1.2473548736
H      2.1397406454    0.0753498304   -0.5268202045
H      2.4758439220    1.5904408993    0.3283662969
14
energy=-15.0
C        -2.76662182      26.70853567       1.08135151
C        -1.29340182      26.68364567       0.87771151
C        -0.60297182      27.88172567       0.48474151
C         0.87024818      27.85683567       0.28109151
H        -3.06493182      25.89961567       1.75553151
H        -3.27681182      26.56392567       0.12478151
H        -3.10041182      27.65300567       1.52170151
H        -0.77576182      25.73179567       0.84389151
H        -1.12061182      28.83358567       0.51856151
H         1.20403818      26.91236567      -0.15925849
H         1.38043818      28.00144567       1.23766151
H         1.16855818      28.66576567      -0.39308849
H         4.23117585       1.82307590     -26.24427124
H         4.93917585       1.82307590     -26.24427124
