    8
energy=   -199.63287145
C      11.01662806    -12.01003811      1.27781499
H      10.24478871    -11.46208402      0.74182173
H      10.88501797    -13.07087101      1.07661463
H      11.98536971    -11.70571291      0.88769401
C      10.93003582    -11.73352358      2.77170397
H       9.96405655    -12.04468578      3.16324326
H      11.05412059    -10.67159295      2.97206400
H      11.70654725    -12.27543766      3.30700317
    8
energy=   -194.32410427
C      11.82324058    -10.91710767      3.60158681
H       7.86395338    -14.36486239     -6.05277736
H       8.14587567    -15.07327752     -5.90535433
H      12.86094164    -11.04066444      3.24013403
C      11.78782561    -10.97054654      5.05204403
H      10.81243261    -11.25646648      5.44426058
H      11.88407967     -9.88547347      5.22339566
H      12.59833294    -11.46851436      5.59417119
