    3
energy=    -37.44747775
H       7.08052227    -19.77844184     -9.66103002
H       7.41619841    -19.39856437     -9.07274407
H       9.15025822    -12.26958350     14.33887655
    3
energy=    -37.44747585
H       8.08415462    -16.13264707      1.99520517
H       7.41492399    -19.41235597     -9.12367294
H       8.14790033    -15.90158672      2.73357023
