    8
energy=   -194.31328154
C      13.85036514    -10.97611912     -8.17679824
H      13.42247479    -10.02195679     -8.51828419
H      13.94885614    -10.90494086     -7.08347223
C       9.04183730    -12.31573719     13.22945461
H       8.36824930    -13.15506419     12.96004761
H       8.61106330    -11.36256919     12.85975961
H       9.15133830    -12.26885919     14.33244261
H      10.03669831    -12.47645619     12.76556861
    8
energy=   -199.63288596
C      10.93362175    -11.48808636      4.57291597
H      10.78047462    -12.33789830      3.91130081
H      11.95644130    -11.13877654      4.44901307
C      10.67396954    -11.88215407      6.01930722
H       9.65124196    -12.23157026      6.14322353
H      10.26037094    -10.69056680      4.26623840
H      10.82758889    -11.03267438      6.68131383
H      11.34716871    -12.67997744      6.32541189
