    2
energy=    -21.41443062
H       2.80019891    -22.07477194    -10.78119745
H      18.05223355    -11.38405168     -5.76510327
    2
energy=    -26.74026085
H      10.11929562    -16.94454396     -8.37409053
H      10.73313687    -16.51427972     -8.17221022
