    5
energy=   -113.61352450
C       8.97216056    -12.31553774     13.34825581
H       8.66229573    -13.19827969     12.80436951
H       8.89658668    -11.44967131     12.70356536
H       8.33254655    -12.18008998     14.21062030
H       9.99719305    -12.43411089     13.67440531
    5
energy=   -107.49094682
C       6.47564509     -8.82018165     14.10824719
H      12.79947063    -18.25271429     11.90268827
H       6.38147241     -7.92916925     13.47000159
H       5.81810911     -8.65872206     14.97525716
H      13.38608554    -17.91690263     12.28502216
