    5
energy=   -113.56399954
C       9.04183731    -12.31573718     13.22945461
H       8.36824931    -13.15506418     12.96004761
H       8.61106331    -11.36256918     12.85975961
H       9.15133831    -12.26885918     14.33244261
H      10.03669832    -12.47645618     12.76556861
    5
energy=   -107.49094680
C       5.28135429    -11.92809529     11.05323692
H       4.59692188    -12.74293465     10.77445786
H       4.83349173    -10.99653503     10.67674885
H      15.05895169    -12.91106659     17.15724026
H      15.43846712    -13.00005441     16.48558936
