28
Lattice="8.654987001723343 0.0 0.0 4.327493500861672 7.495438612916525 0.0 0.0 0.0 0.0" Properties=species:S:1:pos:R:3:tags:I:1 energy=5.6 pbc="T T F"
Au       1.44249783       0.83282651       0.00000000        3
Au       4.32749350       0.83282651       0.00000000        3
Au       7.21248917       0.83282651       0.00000000        3
Au       2.88499567       3.33130605       0.00000000        3
Au       5.76999133       3.33130605       0.00000000        3
Au       8.65498700       3.33130605       0.00000000        3
Au       4.32749350       5.82978559       0.00000000        3
Au       7.21248917       5.82978559       0.00000000        3
Au      10.09748484       5.82978559       0.00000000        3
Au       0.00000000       1.66565303       2.35558910        2
Au       2.88499567       1.66565303       2.35558910        2
Au       5.76999133       1.66565303       2.35558910        2
Au       1.44249783       4.16413256       2.35558910        2
Au       4.32749350       4.16413256       2.35558910        2
Au       7.21248917       4.16413256       2.35558910        2
Au       2.88499567       6.66261210       2.35558910        2
Au       5.76999133       6.66261210       2.35558910        2
Au       8.65498700       6.66261210       2.35558910        2
Au       0.00000000       0.00000000       4.71117820        1
Au       2.88499567       0.00000000       4.71117820        1
Au       5.76999133       0.00000000       4.71117820        1
Au       1.44249783       2.49847954       4.71117820        1
Au       4.32749350       2.49847954       4.71117820        1
Au       7.21248917       2.49847954       4.71117820        1
Au       2.88499567       4.99695908       4.71117820        1
Au       5.76999133       4.99695908       4.71117820        1
Au       8.65498700       4.99695908       4.71117820        1
H        0.00000000       0.00000000       6.46117820        0
28
Lattice="8.654987001723343 0.0 0.0 4.327493500861672 7.495438612916525 0.0 0.0 0.0 0.0" Properties=species:S:1:pos:R:3:tags:I:1 energy=6.1 pbc="T T F"
Au       1.44249783       0.83282651       0.00000000        3
Au       4.32749350       0.83282651       0.00000000        3
Au       7.21248917       0.83282651       0.00000000        3
Au       2.88499567       3.33130605       0.00000000        3
Au       5.76999133       3.33130605       0.00000000        3
Au       8.65498700       3.33130605       0.00000000        3
Au       4.32749350       5.82978559       0.00000000        3
Au       7.21248917       5.82978559       0.00000000        3
Au      10.09748484       5.82978559       0.00000000        3
Au       0.00000000       1.66565303       2.35558910        2
Au       2.88499567       1.66565303       2.35558910        2
Au       5.76999133       1.66565303       2.35558910        2
Au       1.44249783       4.16413256       2.35558910        2
Au       4.32749350       4.16413256       2.35558910        2
Au       7.21248917       4.16413256       2.35558910        2
Au       2.88499567       6.66261210       2.35558910        2
Au       5.76999133       6.66261210       2.35558910        2
Au       8.65498700       6.66261210       2.35558910        2
Au       0.00000000       0.00000000       4.71117820        1
Au       2.88499567       0.00000000       4.71117820        1
Au       5.76999133       0.00000000       4.71117820        1
Au       1.44249783       2.49847954       4.71117820        1
Au       4.32749350       2.49847954       4.71117820        1
Au       7.21248917       2.49847954       4.71117820        1
Au       2.88499567       4.99695908       4.71117820        1
Au       5.76999133       4.99695908       4.71117820        1
Au       8.65498700       4.99695908       4.71117820        1
H        4.40000000       2.50000000      11.56117820        0
