30
Lattice="8.654987001723343 0.0 0.0 4.327493500861672 7.495438612916525 0.0 0.0 0.0 0.0" Properties=species:S:1:pos:R:3:tags:I:1:forces:R:3 energy=5.5285837498606645 pbc="T T F"
Au       1.44249783       0.83282651       0.00000000        3      -0.00000000      -0.00000000       0.39598132
Au       4.32749350       0.83282651       0.00000000        3      -0.00000000       0.00000000       0.39598132
Au       7.21248917       0.83282651       0.00000000        3      -0.00000000       0.00000000       0.39598132
Au       2.88499567       3.33130605       0.00000000        3      -0.00000000       0.00000000       0.39598132
Au       5.76999133       3.33130605       0.00000000        3       0.00000000       0.00000000       0.39598132
Au       8.65498700       3.33130605       0.00000000        3      -0.00000000       0.00000000       0.39598132
Au       4.32749350       5.82978559       0.00000000        3      -0.00000000      -0.00000000       0.39598132
Au       7.21248917       5.82978559       0.00000000        3       0.00000000      -0.00000000       0.39598132
Au      10.09748484       5.82978559       0.00000000        3       0.00000000      -0.00000000       0.39598132
Au      -0.00000000       1.66565303       2.35558910        2      -0.00000000      -0.00000000       0.00000000
Au       2.88499567       1.66565303       2.35558910        2      -0.00000000      -0.00000000       0.00000000
Au       5.76999133       1.66565303       2.35558910        2       0.00000000      -0.00000000       0.00000000
Au       1.44249783       4.16413256       2.35558910        2       0.00000000       0.00000000      -0.00000000
Au       4.32749350       4.16413256       2.35558910        2      -0.00000000       0.00000000      -0.00000000
Au       7.21248917       4.16413256       2.35558910        2      -0.00000000      -0.00000000      -0.00000000
Au       2.88499567       6.66261210       2.35558910        2      -0.00000000      -0.00000000       0.00000000
Au       5.76999133       6.66261210       2.35558910        2       0.00000000       0.00000000       0.00000000
Au       8.65498700       6.66261210       2.35558910        2       0.00000000       0.00000000       0.00000000
Au       0.00000000       0.00000000       4.71117820        1      -0.00000000       0.00000000      -0.39598132
Au       2.88499567       0.00000000       4.71117820        1      -0.00000000       0.00000000      -0.39598132
Au       5.76999133       0.00000000       4.71117820        1       0.00000000       0.00000000      -0.39598132
Au       1.44249783       2.49847954       4.71117820        1      -0.00000000      -0.00000000      -0.39598132
Au       4.32749350       2.49847954       4.71117820        1      -0.00000000      -0.00000000      -0.39598132
Au       7.21248917       2.49847954       4.71117820        1       0.00000000      -0.00000000      -0.39598132
Au       2.88499567       4.99695908       4.71117820        1       0.00000000       0.00000000      -0.39598132
Au       5.76999133       4.99695908       4.71117820        1       0.00000000       0.00000000      -0.39598132
Au       8.65498700       4.99695908       4.71117820        1      -0.00000000       0.00000000      -0.39598132
C        0.00000000       0.00000000      13.38983620        0       0.00000000       0.00000000       0.00000000
O        0.00000000       0.00000000      14.56849420        0       0.00000000       0.00000000      -1.06964147
O        0.00000000       0.00000000      12.21117820        0       0.00000000       0.00000000       1.06964147
30
Lattice="8.654987001723343 0.0 0.0 4.327493500861672 7.495438612916525 0.0 0.0 0.0 0.0" Properties=species:S:1:pos:R:3:tags:I:1:forces:R:3 energy=6.198996724502709 pbc="T T F"
Au       1.44249783       0.83282651       0.00000000        3       0.00002113       0.00001220       0.39591055
Au       4.32749350       0.83282651       0.00000000        3      -0.00000000       0.00000021       0.39597974
Au       7.21248917       0.83282651       0.00000000        3      -0.00002113       0.00001220       0.39591055
Au       2.88499567       3.33130605       0.00000000        3       0.00000018      -0.00000011       0.39597974
Au       5.76999133       3.33130605       0.00000000        3      -0.00000018      -0.00000011       0.39597974
Au       8.65498700       3.33130605       0.00000000        3       0.00000000       0.00000452       0.39597411
Au       4.32749350       5.82978559       0.00000000        3      -0.00000000      -0.00002440       0.39591055
Au       7.21248917       5.82978559       0.00000000        3       0.00000392      -0.00000226       0.39597411
Au      10.09748484       5.82978559       0.00000000        3      -0.00000392      -0.00000226       0.39597411
Au      -0.00000000       1.66565303       2.35558910        2      -0.00000000       0.02756458      -0.03994772
Au       2.88499567       1.66565303       2.35558910        2       0.00091525       0.00052842      -0.00124937
Au       5.76999133       1.66565303       2.35558910        2      -0.00091525       0.00052842      -0.00124937
Au       1.44249783       4.16413256       2.35558910        2      -0.00023360       0.00013487      -0.00080449
Au       4.32749350       4.16413256       2.35558910        2      -0.00000000      -0.00105684      -0.00124937
Au       7.21248917       4.16413256       2.35558910        2       0.00023360       0.00013487      -0.00080449
Au       2.88499567       6.66261210       2.35558910        2      -0.02387162      -0.01378229      -0.03994772
Au       5.76999133       6.66261210       2.35558910        2       0.02387162      -0.01378229      -0.03994772
Au       8.65498700       6.66261210       2.35558910        2      -0.00000000      -0.00026974      -0.00080449
Au       0.00000000       0.00000000       4.71117820        1      -0.00000000       0.00000000      -5.65619352
Au       2.88499567       0.00000000       4.71117820        1       0.05760721       0.00000199      -0.39994362
Au       5.76999133       0.00000000       4.71117820        1      -0.05760721       0.00000199      -0.39994362
Au       1.44249783       2.49847954       4.71117820        1       0.02880532       0.04988831      -0.39994362
Au       4.32749350       2.49847954       4.71117820        1      -0.00000000       0.00000000      -0.39573683
Au       7.21248917       2.49847954       4.71117820        1      -0.02880532       0.04988831      -0.39994362
Au       2.88499567       4.99695908       4.71117820        1      -0.02880188      -0.04989030      -0.39994362
Au       5.76999133       4.99695908       4.71117820        1       0.02880188      -0.04989030      -0.39994362
Au       8.65498700       4.99695908       4.71117820        1      -0.00000000      -0.00000000      -0.39573702
C        0.00000000       0.00000000       7.78983620        0      -0.00000000      -0.00000000       3.51528607
O        0.00000000       0.00000000       8.96849420        0      -0.00000000       0.00000000      -0.92533520
O        0.00000000       0.00000000       6.61117820        0      -0.00000000       0.00000000       2.81978976
